# vtk DataFile Version 2.0
Generated using labelit tools
ASCII
DATASET STRUCTURED_POINTS
DIMENSIONS 64 64 64
SPACING 0.020680 0.020680 0.015821
ORIGIN -0.641071 -0.641071 -0.490453
POINT_DATA 262144
SCALARS volume_scalars float 1
LOOKUP_TABLE default

-32768.0 -32768.0 -32768.0 -32768.0 -32768.0 -32768.0 -32768.0 -32768.0 -32768.0 -32768.0 -32768.0 -32768.0 -32768.0 -32768.0 -32768.0 -32768.0 -32768.0 -32768.0 -32768.0 -32768.0 -32768.0 -32768.0 -32768.0 -32768.0 -32768.0 -32768.0 -32768.0 -32768.0 -32768.0 -32768.0 -32768.0 1036.32 -32768.0 -32768.0 -32768.0 -32768.0 -32768.0 -32768.0 -32768.0 -32768.0 -32768.0 -32768.0 -32768.0 -32768.0 -32768.0 -32768.0 -32768.0 -32768.0 -32768.0 -32768.0 -32768.0 -32768.0 -32768.0 -32768.0 -32768.0 -32768.0 -32768.0 -32768.0 -32768.0 -32768.0 -32768.0 -32768.0 -32768.0 -32768.0 
-32768.0 -32768.0 -32768.0 -32768.0 -32768.0 -32768.0 -32768.0 -32768.0 -32768.0 -32768.0 -32768.0 -32768.0 -32768.0 -32768.0 -32768.0 -32768.0 -32768.0 -32768.0 -32768.0 -32768.0 -32768.0 -32768.0 -32768.0 -32768.0 -32768.0 -32768.0 -32768.0 -32768.0 -32768.0 -32768.0 -32768.0 1038.72 -32768.0 -32768.0 -32768.0 -32768.0 -32768.0 -32768.0 -32768.0 -32768.0 -32768.0 -32768.0 -32768.0 -32768.0 -32768.0 -32768.0 -32768.0 -32768.0 -32768.0 -32768.0 -32768.0 -32768.0 -32768.0 -32768.0 -32768.0 -32768.0 -32768.0 -32768.0 -32768.0 -32768.0 -32768.0 -32768.0 -32768.0 -32768.0 
-32768.0 -32768.0 -32768.0 -32768.0 -32768.0 -32768.0 -32768.0 -32768.0 -32768.0 -32768.0 -32768.0 -32768.0 -32768.0 -32768.0 -32768.0 -32768.0 -32768.0 -32768.0 -32768.0 -32768.0 -32768.0 -32768.0 -32768.0 -32768.0 -32768.0 -32768.0 -32768.0 -32768.0 -32768.0 -32768.0 -32768.0 1050.2 -32768.0 -32768.0 -32768.0 -32768.0 -32768.0 -32768.0 -32768.0 -32768.0 -32768.0 -32768.0 -32768.0 -32768.0 -32768.0 -32768.0 -32768.0 -32768.0 -32768.0 -32768.0 -32768.0 -32768.0 -32768.0 -32768.0 -32768.0 -32768.0 -32768.0 -32768.0 -32768.0 -32768.0 -32768.0 -32768.0 -32768.0 -32768.0 
-32768.0 -32768.0 -32768.0 -32768.0 -32768.0 -32768.0 -32768.0 -32768.0 -32768.0 -32768.0 -32768.0 -32768.0 -32768.0 -32768.0 -32768.0 -32768.0 -32768.0 -32768.0 -32768.0 -32768.0 -32768.0 -32768.0 -32768.0 -32768.0 -32768.0 -32768.0 -32768.0 -32768.0 -32768.0 -32768.0 1051.29 1058.37 -32768.0 -32768.0 -32768.0 -32768.0 -32768.0 -32768.0 -32768.0 -32768.0 -32768.0 -32768.0 -32768.0 -32768.0 -32768.0 -32768.0 -32768.0 -32768.0 -32768.0 -32768.0 -32768.0 -32768.0 -32768.0 -32768.0 -32768.0 -32768.0 -32768.0 -32768.0 -32768.0 -32768.0 -32768.0 -32768.0 -32768.0 -32768.0 
-32768.0 -32768.0 -32768.0 -32768.0 -32768.0 -32768.0 -32768.0 -32768.0 -32768.0 -32768.0 -32768.0 -32768.0 -32768.0 -32768.0 -32768.0 -32768.0 -32768.0 -32768.0 -32768.0 -32768.0 -32768.0 -32768.0 -32768.0 -32768.0 -32768.0 -32768.0 -32768.0 -32768.0 -32768.0 -32768.0 1049.63 1052.16 -32768.0 -32768.0 -32768.0 -32768.0 -32768.0 -32768.0 -32768.0 -32768.0 -32768.0 -32768.0 -32768.0 -32768.0 -32768.0 -32768.0 -32768.0 -32768.0 -32768.0 -32768.0 -32768.0 -32768.0 -32768.0 -32768.0 -32768.0 -32768.0 -32768.0 -32768.0 -32768.0 -32768.0 -32768.0 -32768.0 -32768.0 -32768.0 
-32768.0 -32768.0 -32768.0 -32768.0 -32768.0 -32768.0 -32768.0 -32768.0 -32768.0 -32768.0 -32768.0 -32768.0 -32768.0 -32768.0 -32768.0 -32768.0 -32768.0 -32768.0 -32768.0 -32768.0 -32768.0 -32768.0 -32768.0 -32768.0 -32768.0 -32768.0 -32768.0 -32768.0 -32768.0 -32768.0 1061.74 1063.82 -32768.0 -32768.0 -32768.0 -32768.0 -32768.0 -32768.0 -32768.0 -32768.0 -32768.0 -32768.0 -32768.0 -32768.0 -32768.0 -32768.0 -32768.0 -32768.0 -32768.0 -32768.0 -32768.0 -32768.0 -32768.0 -32768.0 -32768.0 -32768.0 -32768.0 -32768.0 -32768.0 -32768.0 -32768.0 -32768.0 -32768.0 -32768.0 
-32768.0 -32768.0 -32768.0 -32768.0 -32768.0 -32768.0 -32768.0 -32768.0 -32768.0 -32768.0 -32768.0 -32768.0 -32768.0 -32768.0 -32768.0 -32768.0 -32768.0 -32768.0 -32768.0 -32768.0 -32768.0 -32768.0 -32768.0 -32768.0 -32768.0 -32768.0 -32768.0 -32768.0 -32768.0 -32768.0 1077.51 1075.11 -32768.0 -32768.0 -32768.0 -32768.0 -32768.0 -32768.0 -32768.0 -32768.0 -32768.0 -32768.0 -32768.0 -32768.0 -32768.0 -32768.0 -32768.0 -32768.0 -32768.0 -32768.0 -32768.0 -32768.0 -32768.0 -32768.0 -32768.0 -32768.0 -32768.0 -32768.0 -32768.0 -32768.0 -32768.0 -32768.0 -32768.0 -32768.0 
-32768.0 -32768.0 -32768.0 -32768.0 -32768.0 -32768.0 -32768.0 -32768.0 -32768.0 -32768.0 -32768.0 -32768.0 -32768.0 -32768.0 -32768.0 -32768.0 -32768.0 -32768.0 -32768.0 -32768.0 -32768.0 -32768.0 -32768.0 -32768.0 -32768.0 -32768.0 -32768.0 -32768.0 -32768.0 -32768.0 1085.22 1077.79 -32768.0 -32768.0 -32768.0 -32768.0 -32768.0 -32768.0 -32768.0 -32768.0 -32768.0 -32768.0 -32768.0 -32768.0 -32768.0 -32768.0 -32768.0 -32768.0 -32768.0 -32768.0 -32768.0 -32768.0 -32768.0 -32768.0 -32768.0 -32768.0 -32768.0 -32768.0 -32768.0 -32768.0 -32768.0 -32768.0 -32768.0 -32768.0 
-32768.0 -32768.0 -32768.0 -32768.0 -32768.0 -32768.0 -32768.0 -32768.0 -32768.0 -32768.0 -32768.0 -32768.0 -32768.0 -32768.0 -32768.0 -32768.0 -32768.0 -32768.0 -32768.0 -32768.0 -32768.0 -32768.0 -32768.0 -32768.0 -32768.0 -32768.0 -32768.0 -32768.0 -32768.0 -32768.0 1096.57 1085.57 -32768.0 -32768.0 -32768.0 -32768.0 -32768.0 -32768.0 -32768.0 -32768.0 -32768.0 -32768.0 -32768.0 -32768.0 -32768.0 -32768.0 -32768.0 -32768.0 -32768.0 -32768.0 -32768.0 -32768.0 -32768.0 -32768.0 -32768.0 -32768.0 -32768.0 -32768.0 -32768.0 -32768.0 -32768.0 -32768.0 -32768.0 -32768.0 
-32768.0 -32768.0 -32768.0 -32768.0 -32768.0 -32768.0 -32768.0 -32768.0 -32768.0 -32768.0 -32768.0 -32768.0 -32768.0 -32768.0 -32768.0 -32768.0 -32768.0 -32768.0 -32768.0 -32768.0 -32768.0 -32768.0 -32768.0 -32768.0 -32768.0 -32768.0 -32768.0 -32768.0 -32768.0 -32768.0 1107.6 1107.64 -32768.0 -32768.0 -32768.0 -32768.0 -32768.0 -32768.0 -32768.0 -32768.0 -32768.0 -32768.0 -32768.0 -32768.0 -32768.0 -32768.0 -32768.0 -32768.0 -32768.0 -32768.0 -32768.0 -32768.0 -32768.0 -32768.0 -32768.0 -32768.0 -32768.0 -32768.0 -32768.0 -32768.0 -32768.0 -32768.0 -32768.0 -32768.0 
-32768.0 -32768.0 -32768.0 -32768.0 -32768.0 -32768.0 -32768.0 -32768.0 -32768.0 -32768.0 -32768.0 -32768.0 -32768.0 -32768.0 -32768.0 -32768.0 -32768.0 -32768.0 -32768.0 -32768.0 -32768.0 -32768.0 -32768.0 -32768.0 -32768.0 -32768.0 -32768.0 -32768.0 -32768.0 -32768.0 1097.91 1094.15 -32768.0 -32768.0 -32768.0 -32768.0 -32768.0 -32768.0 -32768.0 -32768.0 -32768.0 -32768.0 -32768.0 -32768.0 -32768.0 -32768.0 -32768.0 -32768.0 -32768.0 -32768.0 -32768.0 -32768.0 -32768.0 -32768.0 -32768.0 -32768.0 -32768.0 -32768.0 -32768.0 -32768.0 -32768.0 -32768.0 -32768.0 -32768.0 
-32768.0 -32768.0 -32768.0 -32768.0 -32768.0 -32768.0 -32768.0 -32768.0 -32768.0 -32768.0 -32768.0 -32768.0 -32768.0 -32768.0 -32768.0 -32768.0 -32768.0 -32768.0 -32768.0 -32768.0 -32768.0 -32768.0 -32768.0 -32768.0 -32768.0 -32768.0 -32768.0 -32768.0 -32768.0 -32768.0 1074.0 1094.39 -32768.0 -32768.0 -32768.0 -32768.0 -32768.0 -32768.0 -32768.0 -32768.0 -32768.0 -32768.0 -32768.0 -32768.0 -32768.0 -32768.0 -32768.0 -32768.0 -32768.0 -32768.0 -32768.0 -32768.0 -32768.0 -32768.0 -32768.0 -32768.0 -32768.0 -32768.0 -32768.0 -32768.0 -32768.0 -32768.0 -32768.0 -32768.0 
-32768.0 -32768.0 -32768.0 -32768.0 -32768.0 -32768.0 -32768.0 -32768.0 -32768.0 -32768.0 -32768.0 -32768.0 -32768.0 -32768.0 -32768.0 -32768.0 -32768.0 -32768.0 -32768.0 -32768.0 -32768.0 -32768.0 -32768.0 -32768.0 -32768.0 -32768.0 -32768.0 -32768.0 -32768.0 -32768.0 -32768.0 1102.66 -32768.0 -32768.0 -32768.0 -32768.0 -32768.0 -32768.0 -32768.0 -32768.0 -32768.0 -32768.0 -32768.0 -32768.0 -32768.0 -32768.0 -32768.0 -32768.0 -32768.0 -32768.0 -32768.0 -32768.0 -32768.0 -32768.0 -32768.0 -32768.0 -32768.0 -32768.0 -32768.0 -32768.0 -32768.0 -32768.0 -32768.0 -32768.0 
-32768.0 -32768.0 -32768.0 -32768.0 -32768.0 -32768.0 -32768.0 -32768.0 -32768.0 -32768.0 -32768.0 -32768.0 -32768.0 -32768.0 -32768.0 -32768.0 -32768.0 -32768.0 -32768.0 -32768.0 -32768.0 -32768.0 -32768.0 -32768.0 -32768.0 -32768.0 -32768.0 -32768.0 -32768.0 -32768.0 -32768.0 1103.47 -32768.0 -32768.0 -32768.0 -32768.0 -32768.0 -32768.0 -32768.0 -32768.0 -32768.0 -32768.0 -32768.0 -32768.0 -32768.0 -32768.0 -32768.0 -32768.0 -32768.0 -32768.0 -32768.0 -32768.0 -32768.0 -32768.0 -32768.0 -32768.0 -32768.0 -32768.0 -32768.0 -32768.0 -32768.0 -32768.0 -32768.0 -32768.0 
-32768.0 -32768.0 -32768.0 -32768.0 -32768.0 -32768.0 -32768.0 -32768.0 -32768.0 -32768.0 -32768.0 -32768.0 -32768.0 -32768.0 -32768.0 -32768.0 -32768.0 -32768.0 -32768.0 -32768.0 -32768.0 -32768.0 -32768.0 -32768.0 -32768.0 -32768.0 -32768.0 -32768.0 -32768.0 -32768.0 -32768.0 1091.07 -32768.0 -32768.0 -32768.0 -32768.0 -32768.0 -32768.0 -32768.0 -32768.0 -32768.0 -32768.0 -32768.0 -32768.0 -32768.0 -32768.0 -32768.0 -32768.0 -32768.0 -32768.0 -32768.0 -32768.0 -32768.0 -32768.0 -32768.0 -32768.0 -32768.0 -32768.0 -32768.0 -32768.0 -32768.0 -32768.0 -32768.0 -32768.0 
-32768.0 -32768.0 -32768.0 -32768.0 -32768.0 -32768.0 -32768.0 -32768.0 -32768.0 -32768.0 -32768.0 -32768.0 -32768.0 -32768.0 -32768.0 -32768.0 -32768.0 -32768.0 -32768.0 -32768.0 -32768.0 -32768.0 -32768.0 -32768.0 -32768.0 -32768.0 -32768.0 -32768.0 -32768.0 -32768.0 -32768.0 1095.26 1109.0 -32768.0 -32768.0 -32768.0 -32768.0 -32768.0 -32768.0 -32768.0 -32768.0 -32768.0 -32768.0 -32768.0 -32768.0 -32768.0 -32768.0 -32768.0 -32768.0 -32768.0 -32768.0 -32768.0 -32768.0 -32768.0 -32768.0 -32768.0 -32768.0 -32768.0 -32768.0 -32768.0 -32768.0 -32768.0 -32768.0 -32768.0 
-32768.0 -32768.0 -32768.0 -32768.0 -32768.0 -32768.0 -32768.0 -32768.0 -32768.0 -32768.0 -32768.0 -32768.0 -32768.0 -32768.0 -32768.0 -32768.0 -32768.0 -32768.0 -32768.0 -32768.0 -32768.0 -32768.0 -32768.0 -32768.0 -32768.0 -32768.0 -32768.0 -32768.0 -32768.0 -32768.0 -32768.0 1103.6 1104.56 -32768.0 -32768.0 -32768.0 -32768.0 -32768.0 -32768.0 -32768.0 -32768.0 -32768.0 -32768.0 -32768.0 -32768.0 -32768.0 -32768.0 -32768.0 -32768.0 -32768.0 -32768.0 -32768.0 -32768.0 -32768.0 -32768.0 -32768.0 -32768.0 -32768.0 -32768.0 -32768.0 -32768.0 -32768.0 -32768.0 -32768.0 
-32768.0 -32768.0 -32768.0 -32768.0 -32768.0 -32768.0 -32768.0 -32768.0 -32768.0 -32768.0 -32768.0 -32768.0 -32768.0 -32768.0 -32768.0 -32768.0 -32768.0 -32768.0 -32768.0 -32768.0 -32768.0 -32768.0 -32768.0 -32768.0 -32768.0 -32768.0 -32768.0 -32768.0 -32768.0 -32768.0 -32768.0 1119.22 1118.88 -32768.0 -32768.0 -32768.0 -32768.0 -32768.0 -32768.0 -32768.0 -32768.0 -32768.0 -32768.0 -32768.0 -32768.0 -32768.0 -32768.0 -32768.0 -32768.0 -32768.0 -32768.0 -32768.0 -32768.0 -32768.0 -32768.0 -32768.0 -32768.0 -32768.0 -32768.0 -32768.0 -32768.0 -32768.0 -32768.0 -32768.0 
-32768.0 -32768.0 -32768.0 -32768.0 -32768.0 -32768.0 -32768.0 -32768.0 -32768.0 -32768.0 -32768.0 -32768.0 -32768.0 -32768.0 -32768.0 -32768.0 -32768.0 -32768.0 -32768.0 -32768.0 -32768.0 -32768.0 -32768.0 -32768.0 -32768.0 -32768.0 -32768.0 -32768.0 -32768.0 -32768.0 -32768.0 -32768.0 1152.43 -32768.0 -32768.0 -32768.0 -32768.0 -32768.0 -32768.0 -32768.0 -32768.0 -32768.0 -32768.0 -32768.0 -32768.0 -32768.0 -32768.0 -32768.0 -32768.0 -32768.0 -32768.0 -32768.0 -32768.0 -32768.0 -32768.0 -32768.0 -32768.0 -32768.0 -32768.0 -32768.0 -32768.0 -32768.0 -32768.0 -32768.0 
-32768.0 -32768.0 -32768.0 -32768.0 -32768.0 -32768.0 -32768.0 -32768.0 -32768.0 -32768.0 -32768.0 -32768.0 -32768.0 -32768.0 -32768.0 -32768.0 -32768.0 -32768.0 -32768.0 -32768.0 -32768.0 -32768.0 -32768.0 -32768.0 -32768.0 -32768.0 -32768.0 -32768.0 -32768.0 -32768.0 -32768.0 -32768.0 1167.39 -32768.0 -32768.0 -32768.0 -32768.0 -32768.0 -32768.0 -32768.0 -32768.0 -32768.0 -32768.0 -32768.0 -32768.0 -32768.0 -32768.0 -32768.0 -32768.0 -32768.0 -32768.0 -32768.0 -32768.0 -32768.0 -32768.0 -32768.0 -32768.0 -32768.0 -32768.0 -32768.0 -32768.0 -32768.0 -32768.0 -32768.0 
-32768.0 -32768.0 -32768.0 -32768.0 -32768.0 -32768.0 -32768.0 -32768.0 -32768.0 -32768.0 -32768.0 -32768.0 -32768.0 -32768.0 -32768.0 -32768.0 -32768.0 -32768.0 -32768.0 -32768.0 -32768.0 -32768.0 -32768.0 -32768.0 -32768.0 -32768.0 -32768.0 -32768.0 -32768.0 -32768.0 -32768.0 -32768.0 1160.45 1147.43 -32768.0 -32768.0 -32768.0 -32768.0 -32768.0 -32768.0 -32768.0 -32768.0 -32768.0 -32768.0 -32768.0 -32768.0 -32768.0 -32768.0 -32768.0 -32768.0 -32768.0 -32768.0 -32768.0 -32768.0 -32768.0 -32768.0 -32768.0 -32768.0 -32768.0 -32768.0 -32768.0 -32768.0 -32768.0 -32768.0 
-32768.0 -32768.0 -32768.0 -32768.0 -32768.0 -32768.0 -32768.0 -32768.0 -32768.0 -32768.0 -32768.0 -32768.0 -32768.0 -32768.0 -32768.0 -32768.0 -32768.0 -32768.0 -32768.0 -32768.0 -32768.0 -32768.0 -32768.0 -32768.0 -32768.0 -32768.0 -32768.0 -32768.0 -32768.0 -32768.0 -32768.0 -32768.0 1196.75 1186.75 -32768.0 -32768.0 -32768.0 -32768.0 -32768.0 -32768.0 -32768.0 -32768.0 -32768.0 -32768.0 -32768.0 -32768.0 -32768.0 -32768.0 -32768.0 -32768.0 -32768.0 -32768.0 -32768.0 -32768.0 -32768.0 -32768.0 -32768.0 -32768.0 -32768.0 -32768.0 -32768.0 -32768.0 -32768.0 -32768.0 
-32768.0 -32768.0 -32768.0 -32768.0 -32768.0 -32768.0 -32768.0 -32768.0 -32768.0 -32768.0 -32768.0 -32768.0 -32768.0 -32768.0 -32768.0 -32768.0 -32768.0 -32768.0 -32768.0 -32768.0 -32768.0 -32768.0 -32768.0 -32768.0 -32768.0 -32768.0 -32768.0 -32768.0 -32768.0 -32768.0 -32768.0 -32768.0 -32768.0 1214.92 -32768.0 -32768.0 -32768.0 -32768.0 -32768.0 -32768.0 -32768.0 -32768.0 -32768.0 -32768.0 -32768.0 -32768.0 -32768.0 -32768.0 -32768.0 -32768.0 -32768.0 -32768.0 -32768.0 -32768.0 -32768.0 -32768.0 -32768.0 -32768.0 -32768.0 -32768.0 -32768.0 -32768.0 -32768.0 -32768.0 
-32768.0 -32768.0 -32768.0 -32768.0 -32768.0 -32768.0 -32768.0 -32768.0 -32768.0 -32768.0 -32768.0 -32768.0 -32768.0 -32768.0 -32768.0 -32768.0 -32768.0 -32768.0 -32768.0 -32768.0 -32768.0 -32768.0 -32768.0 -32768.0 -32768.0 -32768.0 -32768.0 -32768.0 -32768.0 -32768.0 -32768.0 -32768.0 -32768.0 1235.07 1230.69 -32768.0 -32768.0 -32768.0 -32768.0 -32768.0 -32768.0 -32768.0 -32768.0 -32768.0 -32768.0 -32768.0 -32768.0 -32768.0 -32768.0 -32768.0 -32768.0 -32768.0 -32768.0 -32768.0 -32768.0 -32768.0 -32768.0 -32768.0 -32768.0 -32768.0 -32768.0 -32768.0 -32768.0 -32768.0 
-32768.0 -32768.0 -32768.0 -32768.0 -32768.0 -32768.0 -32768.0 -32768.0 -32768.0 -32768.0 -32768.0 -32768.0 -32768.0 -32768.0 -32768.0 -32768.0 -32768.0 -32768.0 -32768.0 -32768.0 -32768.0 -32768.0 -32768.0 -32768.0 -32768.0 -32768.0 -32768.0 -32768.0 -32768.0 -32768.0 -32768.0 -32768.0 -32768.0 1262.0 1270.33 -32768.0 -32768.0 -32768.0 -32768.0 -32768.0 -32768.0 -32768.0 -32768.0 -32768.0 -32768.0 -32768.0 -32768.0 -32768.0 -32768.0 -32768.0 -32768.0 -32768.0 -32768.0 -32768.0 -32768.0 -32768.0 -32768.0 -32768.0 -32768.0 -32768.0 -32768.0 -32768.0 -32768.0 -32768.0 
-32768.0 -32768.0 -32768.0 -32768.0 -32768.0 -32768.0 -32768.0 -32768.0 -32768.0 -32768.0 -32768.0 -32768.0 -32768.0 -32768.0 -32768.0 -32768.0 -32768.0 -32768.0 -32768.0 -32768.0 -32768.0 -32768.0 -32768.0 -32768.0 -32768.0 -32768.0 -32768.0 -32768.0 -32768.0 -32768.0 -32768.0 -32768.0 -32768.0 -32768.0 1320.75 1320.33 -32768.0 -32768.0 -32768.0 -32768.0 -32768.0 -32768.0 -32768.0 -32768.0 -32768.0 -32768.0 -32768.0 -32768.0 -32768.0 -32768.0 -32768.0 -32768.0 -32768.0 -32768.0 -32768.0 -32768.0 -32768.0 -32768.0 -32768.0 -32768.0 -32768.0 -32768.0 -32768.0 -32768.0 
-32768.0 -32768.0 -32768.0 -32768.0 -32768.0 -32768.0 -32768.0 -32768.0 -32768.0 -32768.0 -32768.0 -32768.0 -32768.0 -32768.0 -32768.0 -32768.0 -32768.0 -32768.0 -32768.0 -32768.0 -32768.0 -32768.0 -32768.0 -32768.0 -32768.0 -32768.0 -32768.0 -32768.0 -32768.0 -32768.0 -32768.0 -32768.0 -32768.0 -32768.0 1381.2 1357.83 -32768.0 -32768.0 -32768.0 -32768.0 -32768.0 -32768.0 -32768.0 -32768.0 -32768.0 -32768.0 -32768.0 -32768.0 -32768.0 -32768.0 -32768.0 -32768.0 -32768.0 -32768.0 -32768.0 -32768.0 -32768.0 -32768.0 -32768.0 -32768.0 -32768.0 -32768.0 -32768.0 -32768.0 
-32768.0 -32768.0 -32768.0 -32768.0 -32768.0 -32768.0 -32768.0 -32768.0 -32768.0 -32768.0 -32768.0 -32768.0 -32768.0 -32768.0 -32768.0 -32768.0 -32768.0 -32768.0 -32768.0 -32768.0 -32768.0 -32768.0 -32768.0 -32768.0 -32768.0 -32768.0 -32768.0 -32768.0 -32768.0 -32768.0 -32768.0 -32768.0 -32768.0 -32768.0 -32768.0 1364.76 -32768.0 -32768.0 -32768.0 -32768.0 -32768.0 -32768.0 -32768.0 -32768.0 -32768.0 -32768.0 -32768.0 -32768.0 -32768.0 -32768.0 -32768.0 -32768.0 -32768.0 -32768.0 -32768.0 -32768.0 -32768.0 -32768.0 -32768.0 -32768.0 -32768.0 -32768.0 -32768.0 -32768.0 
-32768.0 -32768.0 -32768.0 -32768.0 -32768.0 -32768.0 -32768.0 -32768.0 -32768.0 -32768.0 -32768.0 -32768.0 -32768.0 -32768.0 -32768.0 -32768.0 -32768.0 -32768.0 -32768.0 -32768.0 -32768.0 -32768.0 -32768.0 -32768.0 -32768.0 -32768.0 -32768.0 -32768.0 -32768.0 -32768.0 -32768.0 -32768.0 -32768.0 -32768.0 -32768.0 1373.26 1345.56 -32768.0 -32768.0 -32768.0 -32768.0 -32768.0 -32768.0 -32768.0 -32768.0 -32768.0 -32768.0 -32768.0 -32768.0 -32768.0 -32768.0 -32768.0 -32768.0 -32768.0 -32768.0 -32768.0 -32768.0 -32768.0 -32768.0 -32768.0 -32768.0 -32768.0 -32768.0 -32768.0 
-32768.0 -32768.0 -32768.0 -32768.0 -32768.0 -32768.0 -32768.0 -32768.0 -32768.0 -32768.0 -32768.0 -32768.0 -32768.0 -32768.0 -32768.0 -32768.0 -32768.0 -32768.0 -32768.0 -32768.0 -32768.0 -32768.0 -32768.0 -32768.0 -32768.0 -32768.0 -32768.0 -32768.0 -32768.0 -32768.0 -32768.0 -32768.0 -32768.0 -32768.0 -32768.0 -32768.0 1346.03 -32768.0 -32768.0 -32768.0 -32768.0 -32768.0 -32768.0 -32768.0 -32768.0 -32768.0 -32768.0 -32768.0 -32768.0 -32768.0 -32768.0 -32768.0 -32768.0 -32768.0 -32768.0 -32768.0 -32768.0 -32768.0 -32768.0 -32768.0 -32768.0 -32768.0 -32768.0 -32768.0 
-32768.0 -32768.0 -32768.0 -32768.0 -32768.0 -32768.0 -32768.0 -32768.0 -32768.0 -32768.0 -32768.0 -32768.0 -32768.0 -32768.0 -32768.0 -32768.0 -32768.0 -32768.0 -32768.0 -32768.0 -32768.0 -32768.0 -32768.0 -32768.0 -32768.0 -32768.0 -32768.0 -32768.0 -32768.0 -32768.0 -32768.0 -32768.0 -32768.0 -32768.0 -32768.0 -32768.0 1362.04 1343.11 -32768.0 -32768.0 -32768.0 -32768.0 -32768.0 -32768.0 -32768.0 -32768.0 -32768.0 -32768.0 -32768.0 -32768.0 -32768.0 -32768.0 -32768.0 -32768.0 -32768.0 -32768.0 -32768.0 -32768.0 -32768.0 -32768.0 -32768.0 -32768.0 -32768.0 -32768.0 
-32768.0 -32768.0 -32768.0 -32768.0 -32768.0 -32768.0 -32768.0 -32768.0 -32768.0 -32768.0 -32768.0 -32768.0 -32768.0 -32768.0 -32768.0 -32768.0 -32768.0 -32768.0 -32768.0 -32768.0 -32768.0 -32768.0 -32768.0 -32768.0 -32768.0 -32768.0 -32768.0 -32768.0 -32768.0 -32768.0 -32768.0 -32768.0 -32768.0 -32768.0 -32768.0 -32768.0 -32768.0 1334.49 1296.8 -32768.0 -32768.0 -32768.0 -32768.0 -32768.0 -32768.0 -32768.0 -32768.0 -32768.0 -32768.0 -32768.0 -32768.0 -32768.0 -32768.0 -32768.0 -32768.0 -32768.0 -32768.0 -32768.0 -32768.0 -32768.0 -32768.0 -32768.0 -32768.0 -32768.0 
-32768.0 -32768.0 -32768.0 -32768.0 -32768.0 -32768.0 -32768.0 -32768.0 -32768.0 -32768.0 -32768.0 -32768.0 -32768.0 -32768.0 -32768.0 -32768.0 -32768.0 -32768.0 -32768.0 -32768.0 -32768.0 -32768.0 -32768.0 -32768.0 -32768.0 -32768.0 -32768.0 -32768.0 -32768.0 -32768.0 -32768.0 -32768.0 -32768.0 -32768.0 -32768.0 -32768.0 -32768.0 1325.7 1300.38 -32768.0 -32768.0 -32768.0 -32768.0 -32768.0 -32768.0 -32768.0 -32768.0 -32768.0 -32768.0 -32768.0 -32768.0 -32768.0 -32768.0 -32768.0 -32768.0 -32768.0 -32768.0 -32768.0 -32768.0 -32768.0 -32768.0 -32768.0 -32768.0 -32768.0 
-32768.0 -32768.0 -32768.0 -32768.0 -32768.0 -32768.0 -32768.0 -32768.0 -32768.0 -32768.0 -32768.0 -32768.0 -32768.0 -32768.0 -32768.0 -32768.0 -32768.0 -32768.0 -32768.0 -32768.0 -32768.0 -32768.0 -32768.0 -32768.0 -32768.0 -32768.0 -32768.0 -32768.0 -32768.0 -32768.0 -32768.0 -32768.0 -32768.0 -32768.0 -32768.0 -32768.0 -32768.0 -32768.0 1279.45 1248.54 -32768.0 -32768.0 -32768.0 -32768.0 -32768.0 -32768.0 -32768.0 -32768.0 -32768.0 -32768.0 -32768.0 -32768.0 -32768.0 -32768.0 -32768.0 -32768.0 -32768.0 -32768.0 -32768.0 -32768.0 -32768.0 -32768.0 -32768.0 -32768.0 
-32768.0 -32768.0 -32768.0 -32768.0 -32768.0 -32768.0 -32768.0 -32768.0 -32768.0 -32768.0 -32768.0 -32768.0 -32768.0 -32768.0 -32768.0 -32768.0 -32768.0 -32768.0 -32768.0 -32768.0 -32768.0 -32768.0 -32768.0 -32768.0 -32768.0 -32768.0 -32768.0 -32768.0 -32768.0 -32768.0 -32768.0 -32768.0 -32768.0 -32768.0 -32768.0 -32768.0 -32768.0 -32768.0 1352.0 1241.91 1198.67 -32768.0 -32768.0 -32768.0 -32768.0 -32768.0 -32768.0 -32768.0 -32768.0 -32768.0 -32768.0 -32768.0 -32768.0 -32768.0 -32768.0 -32768.0 -32768.0 -32768.0 -32768.0 -32768.0 -32768.0 -32768.0 -32768.0 -32768.0 
-32768.0 -32768.0 -32768.0 -32768.0 -32768.0 -32768.0 -32768.0 -32768.0 -32768.0 -32768.0 -32768.0 -32768.0 -32768.0 -32768.0 -32768.0 -32768.0 -32768.0 -32768.0 -32768.0 -32768.0 -32768.0 -32768.0 -32768.0 -32768.0 -32768.0 -32768.0 -32768.0 -32768.0 -32768.0 -32768.0 -32768.0 -32768.0 -32768.0 -32768.0 -32768.0 -32768.0 -32768.0 -32768.0 -32768.0 1278.67 1203.05 -32768.0 -32768.0 -32768.0 -32768.0 -32768.0 -32768.0 -32768.0 -32768.0 -32768.0 -32768.0 -32768.0 -32768.0 -32768.0 -32768.0 -32768.0 -32768.0 -32768.0 -32768.0 -32768.0 -32768.0 -32768.0 -32768.0 -32768.0 
-32768.0 -32768.0 -32768.0 -32768.0 -32768.0 -32768.0 -32768.0 -32768.0 -32768.0 -32768.0 -32768.0 -32768.0 -32768.0 -32768.0 -32768.0 -32768.0 -32768.0 -32768.0 -32768.0 -32768.0 -32768.0 -32768.0 -32768.0 -32768.0 -32768.0 -32768.0 -32768.0 -32768.0 -32768.0 -32768.0 -32768.0 -32768.0 -32768.0 -32768.0 -32768.0 -32768.0 -32768.0 -32768.0 -32768.0 -32768.0 1204.48 1173.37 -32768.0 -32768.0 -32768.0 -32768.0 -32768.0 -32768.0 -32768.0 -32768.0 -32768.0 -32768.0 -32768.0 -32768.0 -32768.0 -32768.0 -32768.0 -32768.0 -32768.0 -32768.0 -32768.0 -32768.0 -32768.0 -32768.0 
-32768.0 -32768.0 -32768.0 -32768.0 -32768.0 -32768.0 -32768.0 -32768.0 -32768.0 -32768.0 -32768.0 -32768.0 -32768.0 -32768.0 -32768.0 -32768.0 -32768.0 -32768.0 -32768.0 -32768.0 -32768.0 -32768.0 -32768.0 -32768.0 -32768.0 -32768.0 -32768.0 -32768.0 -32768.0 -32768.0 -32768.0 -32768.0 -32768.0 -32768.0 -32768.0 -32768.0 -32768.0 -32768.0 -32768.0 -32768.0 -32768.0 1178.8 1142.09 -32768.0 -32768.0 -32768.0 -32768.0 -32768.0 -32768.0 -32768.0 -32768.0 -32768.0 -32768.0 -32768.0 -32768.0 -32768.0 -32768.0 -32768.0 -32768.0 -32768.0 -32768.0 -32768.0 -32768.0 -32768.0 
-32768.0 -32768.0 -32768.0 -32768.0 -32768.0 -32768.0 -32768.0 -32768.0 -32768.0 -32768.0 -32768.0 -32768.0 -32768.0 -32768.0 -32768.0 -32768.0 -32768.0 -32768.0 -32768.0 -32768.0 -32768.0 -32768.0 -32768.0 -32768.0 -32768.0 -32768.0 -32768.0 -32768.0 -32768.0 -32768.0 -32768.0 -32768.0 -32768.0 -32768.0 -32768.0 -32768.0 -32768.0 -32768.0 -32768.0 -32768.0 -32768.0 -32768.0 1133.86 1101.95 -32768.0 -32768.0 -32768.0 -32768.0 -32768.0 -32768.0 -32768.0 -32768.0 -32768.0 -32768.0 -32768.0 -32768.0 -32768.0 -32768.0 -32768.0 -32768.0 -32768.0 -32768.0 -32768.0 -32768.0 
-32768.0 -32768.0 -32768.0 -32768.0 -32768.0 -32768.0 -32768.0 -32768.0 -32768.0 -32768.0 -32768.0 -32768.0 -32768.0 -32768.0 -32768.0 -32768.0 -32768.0 -32768.0 -32768.0 -32768.0 -32768.0 -32768.0 -32768.0 -32768.0 -32768.0 -32768.0 -32768.0 -32768.0 -32768.0 -32768.0 -32768.0 -32768.0 -32768.0 -32768.0 -32768.0 -32768.0 -32768.0 -32768.0 -32768.0 -32768.0 -32768.0 -32768.0 1126.8 1108.32 1100.81 -32768.0 -32768.0 -32768.0 -32768.0 -32768.0 -32768.0 -32768.0 -32768.0 -32768.0 -32768.0 -32768.0 -32768.0 -32768.0 -32768.0 -32768.0 -32768.0 -32768.0 -32768.0 -32768.0 
-32768.0 -32768.0 -32768.0 -32768.0 -32768.0 -32768.0 -32768.0 -32768.0 -32768.0 -32768.0 -32768.0 -32768.0 -32768.0 -32768.0 -32768.0 -32768.0 -32768.0 -32768.0 -32768.0 -32768.0 -32768.0 -32768.0 -32768.0 -32768.0 -32768.0 -32768.0 -32768.0 -32768.0 -32768.0 -32768.0 -32768.0 -32768.0 -32768.0 -32768.0 -32768.0 -32768.0 -32768.0 -32768.0 -32768.0 -32768.0 -32768.0 -32768.0 -32768.0 1105.32 1098.19 1098.53 -32768.0 -32768.0 -32768.0 -32768.0 -32768.0 -32768.0 -32768.0 -32768.0 -32768.0 -32768.0 -32768.0 -32768.0 -32768.0 -32768.0 -32768.0 -32768.0 -32768.0 -32768.0 
-32768.0 -32768.0 -32768.0 -32768.0 -32768.0 -32768.0 -32768.0 -32768.0 -32768.0 -32768.0 -32768.0 -32768.0 -32768.0 -32768.0 -32768.0 -32768.0 -32768.0 -32768.0 -32768.0 -32768.0 -32768.0 -32768.0 -32768.0 -32768.0 -32768.0 -32768.0 -32768.0 -32768.0 -32768.0 -32768.0 -32768.0 -32768.0 -32768.0 -32768.0 -32768.0 -32768.0 -32768.0 -32768.0 -32768.0 -32768.0 -32768.0 -32768.0 -32768.0 -32768.0 1107.48 1088.81 1079.86 -32768.0 -32768.0 -32768.0 -32768.0 -32768.0 -32768.0 -32768.0 -32768.0 -32768.0 -32768.0 -32768.0 -32768.0 -32768.0 -32768.0 -32768.0 -32768.0 -32768.0 
-32768.0 -32768.0 -32768.0 -32768.0 -32768.0 -32768.0 -32768.0 -32768.0 -32768.0 -32768.0 -32768.0 -32768.0 -32768.0 -32768.0 -32768.0 -32768.0 -32768.0 -32768.0 -32768.0 -32768.0 -32768.0 -32768.0 -32768.0 -32768.0 -32768.0 -32768.0 -32768.0 -32768.0 -32768.0 -32768.0 -32768.0 -32768.0 -32768.0 -32768.0 -32768.0 -32768.0 -32768.0 -32768.0 -32768.0 -32768.0 -32768.0 -32768.0 -32768.0 -32768.0 -32768.0 1085.41 1101.92 1122.88 -32768.0 -32768.0 -32768.0 -32768.0 -32768.0 -32768.0 -32768.0 -32768.0 -32768.0 -32768.0 -32768.0 -32768.0 -32768.0 -32768.0 -32768.0 -32768.0 
-32768.0 -32768.0 -32768.0 -32768.0 -32768.0 -32768.0 -32768.0 -32768.0 -32768.0 -32768.0 -32768.0 -32768.0 -32768.0 -32768.0 -32768.0 -32768.0 -32768.0 -32768.0 -32768.0 -32768.0 -32768.0 -32768.0 -32768.0 -32768.0 -32768.0 -32768.0 -32768.0 -32768.0 -32768.0 -32768.0 -32768.0 -32768.0 -32768.0 -32768.0 -32768.0 -32768.0 -32768.0 -32768.0 -32768.0 -32768.0 -32768.0 -32768.0 -32768.0 -32768.0 -32768.0 -32768.0 1113.71 1119.01 1099.6 -32768.0 -32768.0 -32768.0 -32768.0 -32768.0 -32768.0 -32768.0 -32768.0 -32768.0 -32768.0 -32768.0 -32768.0 -32768.0 -32768.0 -32768.0 
-32768.0 -32768.0 -32768.0 -32768.0 -32768.0 -32768.0 -32768.0 -32768.0 -32768.0 -32768.0 -32768.0 -32768.0 -32768.0 -32768.0 -32768.0 -32768.0 -32768.0 -32768.0 -32768.0 -32768.0 -32768.0 -32768.0 -32768.0 -32768.0 -32768.0 -32768.0 -32768.0 -32768.0 -32768.0 -32768.0 -32768.0 -32768.0 -32768.0 -32768.0 -32768.0 -32768.0 -32768.0 -32768.0 -32768.0 -32768.0 -32768.0 -32768.0 -32768.0 -32768.0 -32768.0 -32768.0 -32768.0 1122.0 1101.36 1106.53 -32768.0 -32768.0 -32768.0 -32768.0 -32768.0 -32768.0 -32768.0 -32768.0 -32768.0 -32768.0 -32768.0 -32768.0 -32768.0 -32768.0 
-32768.0 -32768.0 -32768.0 -32768.0 -32768.0 -32768.0 -32768.0 -32768.0 -32768.0 -32768.0 -32768.0 -32768.0 -32768.0 -32768.0 -32768.0 -32768.0 -32768.0 -32768.0 -32768.0 -32768.0 -32768.0 -32768.0 -32768.0 -32768.0 -32768.0 -32768.0 -32768.0 -32768.0 -32768.0 -32768.0 -32768.0 -32768.0 -32768.0 -32768.0 -32768.0 -32768.0 -32768.0 -32768.0 -32768.0 -32768.0 -32768.0 -32768.0 -32768.0 -32768.0 -32768.0 -32768.0 -32768.0 -32768.0 -32768.0 1106.44 1114.92 1114.8 -32768.0 -32768.0 -32768.0 -32768.0 -32768.0 -32768.0 -32768.0 -32768.0 -32768.0 -32768.0 -32768.0 -32768.0 
-32768.0 -32768.0 -32768.0 -32768.0 -32768.0 -32768.0 -32768.0 -32768.0 -32768.0 -32768.0 -32768.0 -32768.0 -32768.0 -32768.0 -32768.0 -32768.0 -32768.0 -32768.0 -32768.0 -32768.0 -32768.0 -32768.0 -32768.0 -32768.0 -32768.0 -32768.0 -32768.0 -32768.0 -32768.0 -32768.0 -32768.0 -32768.0 -32768.0 -32768.0 -32768.0 -32768.0 -32768.0 -32768.0 -32768.0 -32768.0 -32768.0 -32768.0 -32768.0 -32768.0 -32768.0 -32768.0 -32768.0 -32768.0 -32768.0 -32768.0 1121.76 1117.61 1128.66 -32768.0 -32768.0 -32768.0 -32768.0 -32768.0 -32768.0 -32768.0 -32768.0 -32768.0 -32768.0 -32768.0 
-32768.0 -32768.0 -32768.0 -32768.0 -32768.0 -32768.0 -32768.0 -32768.0 -32768.0 -32768.0 -32768.0 -32768.0 -32768.0 -32768.0 -32768.0 -32768.0 -32768.0 -32768.0 -32768.0 -32768.0 -32768.0 -32768.0 -32768.0 -32768.0 -32768.0 -32768.0 -32768.0 -32768.0 -32768.0 -32768.0 -32768.0 -32768.0 -32768.0 -32768.0 -32768.0 -32768.0 -32768.0 -32768.0 -32768.0 -32768.0 -32768.0 -32768.0 -32768.0 -32768.0 -32768.0 -32768.0 -32768.0 -32768.0 -32768.0 -32768.0 -32768.0 1156.33 1119.6 1111.13 -32768.0 -32768.0 -32768.0 -32768.0 -32768.0 -32768.0 -32768.0 -32768.0 -32768.0 -32768.0 
-32768.0 -32768.0 -32768.0 -32768.0 -32768.0 -32768.0 -32768.0 -32768.0 -32768.0 -32768.0 -32768.0 -32768.0 -32768.0 -32768.0 -32768.0 -32768.0 -32768.0 -32768.0 -32768.0 -32768.0 -32768.0 -32768.0 -32768.0 -32768.0 -32768.0 -32768.0 -32768.0 -32768.0 -32768.0 -32768.0 -32768.0 -32768.0 -32768.0 -32768.0 -32768.0 -32768.0 -32768.0 -32768.0 -32768.0 -32768.0 -32768.0 -32768.0 -32768.0 -32768.0 -32768.0 -32768.0 -32768.0 -32768.0 -32768.0 -32768.0 -32768.0 -32768.0 -32768.0 -32768.0 -32768.0 -32768.0 -32768.0 -32768.0 -32768.0 -32768.0 -32768.0 -32768.0 -32768.0 -32768.0 
-32768.0 -32768.0 -32768.0 -32768.0 -32768.0 -32768.0 -32768.0 -32768.0 -32768.0 -32768.0 -32768.0 -32768.0 -32768.0 -32768.0 -32768.0 -32768.0 -32768.0 -32768.0 -32768.0 -32768.0 -32768.0 -32768.0 -32768.0 -32768.0 -32768.0 -32768.0 -32768.0 -32768.0 -32768.0 -32768.0 -32768.0 -32768.0 -32768.0 -32768.0 -32768.0 -32768.0 -32768.0 -32768.0 -32768.0 -32768.0 -32768.0 -32768.0 -32768.0 -32768.0 -32768.0 -32768.0 -32768.0 -32768.0 -32768.0 -32768.0 -32768.0 -32768.0 -32768.0 -32768.0 -32768.0 -32768.0 -32768.0 -32768.0 -32768.0 -32768.0 -32768.0 -32768.0 -32768.0 -32768.0 
-32768.0 -32768.0 -32768.0 -32768.0 -32768.0 -32768.0 -32768.0 -32768.0 -32768.0 -32768.0 -32768.0 -32768.0 -32768.0 -32768.0 -32768.0 -32768.0 -32768.0 -32768.0 -32768.0 -32768.0 -32768.0 -32768.0 -32768.0 -32768.0 -32768.0 -32768.0 -32768.0 -32768.0 -32768.0 -32768.0 -32768.0 -32768.0 -32768.0 -32768.0 -32768.0 -32768.0 -32768.0 -32768.0 -32768.0 -32768.0 -32768.0 -32768.0 -32768.0 -32768.0 -32768.0 -32768.0 -32768.0 -32768.0 -32768.0 -32768.0 -32768.0 -32768.0 -32768.0 -32768.0 -32768.0 -32768.0 -32768.0 -32768.0 -32768.0 -32768.0 -32768.0 -32768.0 -32768.0 -32768.0 