# vtk DataFile Version 2.0
Generated using labelit tools
ASCII
DATASET STRUCTURED_POINTS
DIMENSIONS 64 64 64
SPACING 0.020680 0.020680 0.015821
ORIGIN -0.641071 -0.641071 -0.490453
POINT_DATA 262144
SCALARS volume_scalars float 1
LOOKUP_TABLE default

-32768.0 -32768.0 -32768.0 -32768.0 -32768.0 -32768.0 -32768.0 -32768.0 -32768.0 -32768.0 -32768.0 -32768.0 -32768.0 -32768.0 -32768.0 -32768.0 -32768.0 -32768.0 -32768.0 -32768.0 -32768.0 -32768.0 -32768.0 -32768.0 -32768.0 -32768.0 -32768.0 -32768.0 -32768.0 -32768.0 -32768.0 -32768.0 -32768.0 -32768.0 -32768.0 -32768.0 -32768.0 -32768.0 -32768.0 -32768.0 -32768.0 -32768.0 -32768.0 -32768.0 -32768.0 -32768.0 -32768.0 -32768.0 -32768.0 -32768.0 -32768.0 -32768.0 -32768.0 -32768.0 -32768.0 -32768.0 -32768.0 -32768.0 -32768.0 -32768.0 -32768.0 -32768.0 -32768.0 -32768.0 
-32768.0 -32768.0 -32768.0 -32768.0 -32768.0 -32768.0 -32768.0 -32768.0 -32768.0 -32768.0 -32768.0 -32768.0 -32768.0 -32768.0 -32768.0 -32768.0 -32768.0 -32768.0 -32768.0 -32768.0 -32768.0 -32768.0 -32768.0 -32768.0 -32768.0 -32768.0 -32768.0 -32768.0 -32768.0 -32768.0 -32768.0 -32768.0 -32768.0 -32768.0 -32768.0 -32768.0 -32768.0 -32768.0 -32768.0 -32768.0 -32768.0 -32768.0 -32768.0 -32768.0 -32768.0 -32768.0 -32768.0 -32768.0 -32768.0 -32768.0 -32768.0 -32768.0 -32768.0 -32768.0 -32768.0 -32768.0 -32768.0 -32768.0 -32768.0 -32768.0 -32768.0 -32768.0 -32768.0 -32768.0 
-32768.0 -32768.0 -32768.0 -32768.0 -32768.0 -32768.0 -32768.0 -32768.0 -32768.0 -32768.0 -32768.0 -32768.0 -32768.0 -32768.0 -32768.0 -32768.0 -32768.0 -32768.0 -32768.0 -32768.0 -32768.0 -32768.0 -32768.0 -32768.0 -32768.0 -32768.0 -32768.0 -32768.0 -32768.0 -32768.0 -32768.0 -32768.0 -32768.0 -32768.0 -32768.0 -32768.0 -32768.0 -32768.0 -32768.0 -32768.0 -32768.0 -32768.0 -32768.0 -32768.0 -32768.0 -32768.0 -32768.0 -32768.0 -32768.0 -32768.0 -32768.0 -32768.0 -32768.0 -32768.0 -32768.0 -32768.0 -32768.0 -32768.0 -32768.0 -32768.0 -32768.0 -32768.0 -32768.0 -32768.0 
-32768.0 -32768.0 -32768.0 -32768.0 -32768.0 -32768.0 -32768.0 -32768.0 -32768.0 -32768.0 -32768.0 -32768.0 -32768.0 -32768.0 -32768.0 -32768.0 -32768.0 -32768.0 -32768.0 -32768.0 -32768.0 -32768.0 -32768.0 -32768.0 -32768.0 -32768.0 -32768.0 -32768.0 -32768.0 -32768.0 -32768.0 -32768.0 -32768.0 -32768.0 -32768.0 -32768.0 -32768.0 -32768.0 -32768.0 -32768.0 -32768.0 -32768.0 -32768.0 -32768.0 -32768.0 -32768.0 -32768.0 -32768.0 -32768.0 -32768.0 -32768.0 -32768.0 -32768.0 -32768.0 -32768.0 -32768.0 -32768.0 -32768.0 -32768.0 -32768.0 -32768.0 -32768.0 -32768.0 -32768.0 
-32768.0 -32768.0 -32768.0 -32768.0 -32768.0 -32768.0 -32768.0 -32768.0 -32768.0 -32768.0 -32768.0 -32768.0 -32768.0 -32768.0 -32768.0 -32768.0 -32768.0 -32768.0 -32768.0 -32768.0 -32768.0 -32768.0 -32768.0 -32768.0 -32768.0 -32768.0 -32768.0 -32768.0 -32768.0 -32768.0 -32768.0 -32768.0 -32768.0 -32768.0 -32768.0 -32768.0 -32768.0 -32768.0 -32768.0 -32768.0 -32768.0 -32768.0 -32768.0 -32768.0 -32768.0 -32768.0 -32768.0 -32768.0 -32768.0 -32768.0 -32768.0 -32768.0 -32768.0 -32768.0 -32768.0 -32768.0 -32768.0 -32768.0 -32768.0 -32768.0 -32768.0 -32768.0 -32768.0 -32768.0 
-32768.0 -32768.0 -32768.0 -32768.0 -32768.0 -32768.0 -32768.0 -32768.0 -32768.0 -32768.0 -32768.0 -32768.0 -32768.0 -32768.0 -32768.0 -32768.0 -32768.0 -32768.0 -32768.0 -32768.0 -32768.0 -32768.0 -32768.0 -32768.0 -32768.0 -32768.0 -32768.0 -32768.0 -32768.0 -32768.0 -32768.0 -32768.0 -32768.0 -32768.0 -32768.0 -32768.0 -32768.0 -32768.0 -32768.0 -32768.0 -32768.0 -32768.0 -32768.0 -32768.0 -32768.0 -32768.0 -32768.0 -32768.0 -32768.0 -32768.0 -32768.0 -32768.0 -32768.0 -32768.0 -32768.0 -32768.0 -32768.0 -32768.0 -32768.0 -32768.0 -32768.0 -32768.0 -32768.0 -32768.0 
-32768.0 -32768.0 -32768.0 -32768.0 -32768.0 -32768.0 -32768.0 -32768.0 -32768.0 -32768.0 -32768.0 -32768.0 -32768.0 -32768.0 -32768.0 -32768.0 -32768.0 -32768.0 -32768.0 -32768.0 -32768.0 -32768.0 -32768.0 -32768.0 -32768.0 -32768.0 -32768.0 -32768.0 -32768.0 -32768.0 -32768.0 -32768.0 -32768.0 -32768.0 -32768.0 -32768.0 -32768.0 -32768.0 -32768.0 -32768.0 -32768.0 -32768.0 -32768.0 -32768.0 -32768.0 -32768.0 -32768.0 -32768.0 -32768.0 -32768.0 -32768.0 -32768.0 -32768.0 -32768.0 -32768.0 -32768.0 -32768.0 -32768.0 -32768.0 -32768.0 -32768.0 -32768.0 -32768.0 -32768.0 
-32768.0 -32768.0 -32768.0 -32768.0 -32768.0 -32768.0 -32768.0 -32768.0 -32768.0 -32768.0 -32768.0 -32768.0 -32768.0 -32768.0 -32768.0 -32768.0 -32768.0 -32768.0 -32768.0 -32768.0 -32768.0 -32768.0 -32768.0 -32768.0 -32768.0 -32768.0 -32768.0 -32768.0 -32768.0 -32768.0 -32768.0 -32768.0 -32768.0 -32768.0 -32768.0 -32768.0 -32768.0 -32768.0 -32768.0 -32768.0 -32768.0 -32768.0 -32768.0 -32768.0 -32768.0 -32768.0 -32768.0 -32768.0 -32768.0 -32768.0 -32768.0 -32768.0 -32768.0 -32768.0 -32768.0 -32768.0 -32768.0 -32768.0 -32768.0 -32768.0 -32768.0 -32768.0 -32768.0 -32768.0 
-32768.0 -32768.0 -32768.0 -32768.0 -32768.0 -32768.0 -32768.0 -32768.0 -32768.0 -32768.0 -32768.0 -32768.0 -32768.0 -32768.0 -32768.0 -32768.0 -32768.0 -32768.0 -32768.0 -32768.0 -32768.0 -32768.0 -32768.0 -32768.0 -32768.0 -32768.0 -32768.0 -32768.0 -32768.0 -32768.0 -32768.0 -32768.0 -32768.0 -32768.0 -32768.0 -32768.0 -32768.0 -32768.0 -32768.0 -32768.0 -32768.0 -32768.0 -32768.0 -32768.0 -32768.0 -32768.0 -32768.0 -32768.0 -32768.0 -32768.0 -32768.0 -32768.0 -32768.0 -32768.0 -32768.0 -32768.0 -32768.0 -32768.0 -32768.0 -32768.0 -32768.0 -32768.0 -32768.0 -32768.0 
-32768.0 -32768.0 -32768.0 -32768.0 -32768.0 -32768.0 -32768.0 -32768.0 -32768.0 -32768.0 -32768.0 -32768.0 -32768.0 -32768.0 -32768.0 -32768.0 -32768.0 -32768.0 -32768.0 -32768.0 -32768.0 -32768.0 -32768.0 -32768.0 -32768.0 -32768.0 -32768.0 -32768.0 -32768.0 -32768.0 -32768.0 -32768.0 -32768.0 -32768.0 -32768.0 -32768.0 -32768.0 -32768.0 -32768.0 -32768.0 -32768.0 -32768.0 -32768.0 -32768.0 -32768.0 -32768.0 -32768.0 -32768.0 -32768.0 -32768.0 -32768.0 -32768.0 -32768.0 -32768.0 -32768.0 -32768.0 -32768.0 -32768.0 -32768.0 -32768.0 -32768.0 -32768.0 -32768.0 -32768.0 
-32768.0 -32768.0 -32768.0 -32768.0 -32768.0 -32768.0 -32768.0 -32768.0 -32768.0 -32768.0 -32768.0 -32768.0 -32768.0 -32768.0 -32768.0 -32768.0 -32768.0 -32768.0 -32768.0 -32768.0 -32768.0 -32768.0 -32768.0 -32768.0 -32768.0 -32768.0 -32768.0 -32768.0 -32768.0 -32768.0 -32768.0 -32768.0 -32768.0 -32768.0 -32768.0 -32768.0 -32768.0 -32768.0 -32768.0 -32768.0 -32768.0 -32768.0 -32768.0 -32768.0 -32768.0 -32768.0 -32768.0 -32768.0 -32768.0 -32768.0 -32768.0 -32768.0 -32768.0 -32768.0 -32768.0 -32768.0 -32768.0 -32768.0 -32768.0 -32768.0 -32768.0 -32768.0 -32768.0 -32768.0 
-32768.0 -32768.0 -32768.0 -32768.0 -32768.0 -32768.0 -32768.0 -32768.0 -32768.0 -32768.0 -32768.0 -32768.0 -32768.0 -32768.0 -32768.0 -32768.0 -32768.0 -32768.0 -32768.0 -32768.0 -32768.0 -32768.0 -32768.0 -32768.0 -32768.0 -32768.0 -32768.0 -32768.0 -32768.0 -32768.0 -32768.0 -32768.0 -32768.0 -32768.0 -32768.0 -32768.0 -32768.0 -32768.0 -32768.0 -32768.0 -32768.0 -32768.0 -32768.0 -32768.0 -32768.0 -32768.0 -32768.0 -32768.0 -32768.0 -32768.0 -32768.0 -32768.0 -32768.0 -32768.0 -32768.0 -32768.0 -32768.0 -32768.0 -32768.0 -32768.0 -32768.0 -32768.0 -32768.0 -32768.0 
-32768.0 -32768.0 -32768.0 -32768.0 -32768.0 -32768.0 -32768.0 -32768.0 -32768.0 -32768.0 -32768.0 -32768.0 -32768.0 -32768.0 -32768.0 -32768.0 -32768.0 -32768.0 -32768.0 -32768.0 -32768.0 -32768.0 -32768.0 -32768.0 -32768.0 -32768.0 -32768.0 -32768.0 -32768.0 -32768.0 -32768.0 -32768.0 -32768.0 -32768.0 -32768.0 -32768.0 -32768.0 -32768.0 -32768.0 -32768.0 -32768.0 -32768.0 -32768.0 -32768.0 -32768.0 -32768.0 -32768.0 -32768.0 -32768.0 -32768.0 -32768.0 -32768.0 -32768.0 -32768.0 -32768.0 -32768.0 -32768.0 -32768.0 -32768.0 -32768.0 -32768.0 -32768.0 -32768.0 -32768.0 
-32768.0 -32768.0 -32768.0 -32768.0 -32768.0 -32768.0 -32768.0 -32768.0 -32768.0 -32768.0 -32768.0 -32768.0 -32768.0 -32768.0 -32768.0 -32768.0 -32768.0 -32768.0 -32768.0 -32768.0 -32768.0 -32768.0 -32768.0 -32768.0 -32768.0 -32768.0 -32768.0 -32768.0 -32768.0 -32768.0 -32768.0 -32768.0 -32768.0 -32768.0 -32768.0 -32768.0 -32768.0 -32768.0 -32768.0 -32768.0 -32768.0 -32768.0 -32768.0 -32768.0 -32768.0 -32768.0 -32768.0 -32768.0 -32768.0 -32768.0 -32768.0 -32768.0 -32768.0 -32768.0 -32768.0 -32768.0 -32768.0 -32768.0 -32768.0 -32768.0 -32768.0 -32768.0 -32768.0 -32768.0 
-32768.0 -32768.0 -32768.0 -32768.0 -32768.0 -32768.0 -32768.0 -32768.0 -32768.0 -32768.0 -32768.0 -32768.0 -32768.0 -32768.0 -32768.0 -32768.0 -32768.0 -32768.0 -32768.0 -32768.0 -32768.0 -32768.0 -32768.0 -32768.0 -32768.0 -32768.0 -32768.0 -32768.0 -32768.0 -32768.0 -32768.0 -32768.0 -32768.0 -32768.0 -32768.0 -32768.0 -32768.0 -32768.0 -32768.0 -32768.0 -32768.0 -32768.0 -32768.0 -32768.0 -32768.0 -32768.0 -32768.0 -32768.0 -32768.0 -32768.0 -32768.0 -32768.0 -32768.0 -32768.0 -32768.0 -32768.0 -32768.0 -32768.0 -32768.0 -32768.0 -32768.0 -32768.0 -32768.0 -32768.0 
-32768.0 -32768.0 -32768.0 -32768.0 -32768.0 -32768.0 -32768.0 -32768.0 -32768.0 -32768.0 -32768.0 -32768.0 -32768.0 -32768.0 -32768.0 -32768.0 -32768.0 -32768.0 -32768.0 -32768.0 -32768.0 -32768.0 -32768.0 -32768.0 -32768.0 -32768.0 -32768.0 -32768.0 -32768.0 -32768.0 -32768.0 -32768.0 -32768.0 -32768.0 -32768.0 -32768.0 -32768.0 -32768.0 -32768.0 -32768.0 -32768.0 -32768.0 -32768.0 -32768.0 -32768.0 -32768.0 -32768.0 -32768.0 -32768.0 -32768.0 -32768.0 -32768.0 -32768.0 -32768.0 -32768.0 -32768.0 -32768.0 -32768.0 -32768.0 -32768.0 -32768.0 -32768.0 -32768.0 -32768.0 
-32768.0 -32768.0 -32768.0 -32768.0 -32768.0 -32768.0 -32768.0 -32768.0 -32768.0 -32768.0 -32768.0 -32768.0 -32768.0 -32768.0 -32768.0 -32768.0 -32768.0 -32768.0 -32768.0 -32768.0 -32768.0 -32768.0 -32768.0 -32768.0 -32768.0 -32768.0 -32768.0 -32768.0 -32768.0 -32768.0 -32768.0 -32768.0 -32768.0 -32768.0 -32768.0 -32768.0 -32768.0 -32768.0 -32768.0 -32768.0 -32768.0 -32768.0 -32768.0 -32768.0 -32768.0 -32768.0 -32768.0 -32768.0 -32768.0 -32768.0 -32768.0 -32768.0 -32768.0 -32768.0 -32768.0 -32768.0 -32768.0 -32768.0 -32768.0 -32768.0 -32768.0 -32768.0 -32768.0 -32768.0 
-32768.0 -32768.0 -32768.0 -32768.0 -32768.0 -32768.0 -32768.0 -32768.0 -32768.0 -32768.0 -32768.0 -32768.0 -32768.0 -32768.0 -32768.0 -32768.0 -32768.0 -32768.0 -32768.0 -32768.0 -32768.0 -32768.0 -32768.0 -32768.0 -32768.0 -32768.0 -32768.0 -32768.0 -32768.0 -32768.0 -32768.0 -32768.0 -32768.0 -32768.0 -32768.0 -32768.0 -32768.0 -32768.0 -32768.0 -32768.0 -32768.0 -32768.0 -32768.0 -32768.0 -32768.0 -32768.0 -32768.0 -32768.0 -32768.0 -32768.0 -32768.0 -32768.0 -32768.0 -32768.0 -32768.0 -32768.0 -32768.0 -32768.0 -32768.0 -32768.0 -32768.0 -32768.0 -32768.0 -32768.0 
-32768.0 -32768.0 -32768.0 -32768.0 -32768.0 -32768.0 -32768.0 -32768.0 -32768.0 -32768.0 -32768.0 -32768.0 -32768.0 -32768.0 -32768.0 -32768.0 -32768.0 -32768.0 -32768.0 -32768.0 -32768.0 -32768.0 -32768.0 -32768.0 -32768.0 -32768.0 -32768.0 -32768.0 -32768.0 -32768.0 -32768.0 -32768.0 -32768.0 -32768.0 -32768.0 -32768.0 -32768.0 -32768.0 -32768.0 -32768.0 -32768.0 -32768.0 -32768.0 -32768.0 -32768.0 -32768.0 -32768.0 -32768.0 -32768.0 -32768.0 -32768.0 -32768.0 -32768.0 -32768.0 -32768.0 -32768.0 -32768.0 -32768.0 -32768.0 -32768.0 -32768.0 -32768.0 -32768.0 -32768.0 
-32768.0 -32768.0 -32768.0 -32768.0 -32768.0 -32768.0 -32768.0 -32768.0 -32768.0 -32768.0 -32768.0 -32768.0 -32768.0 -32768.0 -32768.0 -32768.0 -32768.0 -32768.0 -32768.0 -32768.0 -32768.0 -32768.0 -32768.0 -32768.0 -32768.0 -32768.0 -32768.0 -32768.0 -32768.0 -32768.0 -32768.0 -32768.0 -32768.0 -32768.0 -32768.0 -32768.0 -32768.0 -32768.0 -32768.0 -32768.0 -32768.0 -32768.0 -32768.0 -32768.0 -32768.0 -32768.0 -32768.0 -32768.0 -32768.0 -32768.0 -32768.0 -32768.0 -32768.0 -32768.0 -32768.0 -32768.0 -32768.0 -32768.0 -32768.0 -32768.0 -32768.0 -32768.0 -32768.0 -32768.0 
-32768.0 -32768.0 -32768.0 -32768.0 -32768.0 -32768.0 -32768.0 -32768.0 -32768.0 -32768.0 -32768.0 -32768.0 -32768.0 -32768.0 -32768.0 -32768.0 -32768.0 -32768.0 -32768.0 -32768.0 -32768.0 -32768.0 -32768.0 -32768.0 -32768.0 -32768.0 -32768.0 -32768.0 -32768.0 -32768.0 -32768.0 -32768.0 -32768.0 -32768.0 -32768.0 -32768.0 -32768.0 -32768.0 -32768.0 -32768.0 -32768.0 -32768.0 -32768.0 -32768.0 -32768.0 -32768.0 -32768.0 -32768.0 -32768.0 -32768.0 -32768.0 -32768.0 -32768.0 -32768.0 -32768.0 -32768.0 -32768.0 -32768.0 -32768.0 -32768.0 -32768.0 -32768.0 -32768.0 -32768.0 
-32768.0 -32768.0 -32768.0 -32768.0 -32768.0 -32768.0 -32768.0 -32768.0 -32768.0 -32768.0 -32768.0 -32768.0 -32768.0 -32768.0 -32768.0 -32768.0 -32768.0 -32768.0 -32768.0 -32768.0 -32768.0 -32768.0 -32768.0 -32768.0 -32768.0 -32768.0 -32768.0 -32768.0 -32768.0 -32768.0 -32768.0 -32768.0 -32768.0 -32768.0 -32768.0 -32768.0 -32768.0 -32768.0 -32768.0 -32768.0 -32768.0 -32768.0 -32768.0 -32768.0 -32768.0 -32768.0 -32768.0 -32768.0 -32768.0 -32768.0 -32768.0 -32768.0 -32768.0 -32768.0 -32768.0 -32768.0 -32768.0 -32768.0 -32768.0 -32768.0 -32768.0 -32768.0 -32768.0 -32768.0 
-32768.0 -32768.0 -32768.0 -32768.0 -32768.0 -32768.0 -32768.0 -32768.0 -32768.0 -32768.0 -32768.0 -32768.0 -32768.0 -32768.0 -32768.0 -32768.0 -32768.0 -32768.0 -32768.0 -32768.0 -32768.0 -32768.0 -32768.0 -32768.0 -32768.0 -32768.0 -32768.0 -32768.0 -32768.0 -32768.0 -32768.0 -32768.0 -32768.0 -32768.0 -32768.0 -32768.0 -32768.0 -32768.0 -32768.0 -32768.0 -32768.0 -32768.0 -32768.0 -32768.0 -32768.0 -32768.0 -32768.0 -32768.0 -32768.0 -32768.0 -32768.0 -32768.0 -32768.0 -32768.0 -32768.0 -32768.0 -32768.0 -32768.0 -32768.0 -32768.0 -32768.0 -32768.0 -32768.0 -32768.0 
-32768.0 -32768.0 -32768.0 -32768.0 -32768.0 -32768.0 -32768.0 -32768.0 -32768.0 -32768.0 -32768.0 -32768.0 -32768.0 -32768.0 -32768.0 -32768.0 -32768.0 -32768.0 -32768.0 -32768.0 -32768.0 -32768.0 -32768.0 -32768.0 -32768.0 -32768.0 -32768.0 -32768.0 -32768.0 -32768.0 -32768.0 -32768.0 -32768.0 -32768.0 -32768.0 -32768.0 -32768.0 -32768.0 -32768.0 -32768.0 -32768.0 -32768.0 -32768.0 -32768.0 -32768.0 -32768.0 -32768.0 -32768.0 -32768.0 -32768.0 -32768.0 -32768.0 -32768.0 -32768.0 -32768.0 -32768.0 -32768.0 -32768.0 -32768.0 -32768.0 -32768.0 -32768.0 -32768.0 -32768.0 
-32768.0 -32768.0 -32768.0 -32768.0 -32768.0 -32768.0 -32768.0 -32768.0 -32768.0 -32768.0 -32768.0 -32768.0 -32768.0 -32768.0 -32768.0 -32768.0 -32768.0 -32768.0 -32768.0 -32768.0 -32768.0 -32768.0 -32768.0 -32768.0 -32768.0 -32768.0 -32768.0 -32768.0 -32768.0 -32768.0 -32768.0 -32768.0 -32768.0 -32768.0 -32768.0 -32768.0 -32768.0 -32768.0 -32768.0 -32768.0 -32768.0 -32768.0 -32768.0 -32768.0 -32768.0 -32768.0 -32768.0 -32768.0 -32768.0 -32768.0 -32768.0 -32768.0 -32768.0 -32768.0 -32768.0 -32768.0 -32768.0 -32768.0 -32768.0 -32768.0 -32768.0 -32768.0 -32768.0 -32768.0 
-32768.0 -32768.0 -32768.0 -32768.0 -32768.0 -32768.0 -32768.0 -32768.0 -32768.0 -32768.0 -32768.0 -32768.0 -32768.0 -32768.0 -32768.0 -32768.0 -32768.0 -32768.0 -32768.0 -32768.0 -32768.0 -32768.0 -32768.0 -32768.0 -32768.0 -32768.0 -32768.0 -32768.0 -32768.0 -32768.0 -32768.0 -32768.0 -32768.0 -32768.0 -32768.0 -32768.0 -32768.0 -32768.0 -32768.0 -32768.0 -32768.0 -32768.0 -32768.0 -32768.0 -32768.0 -32768.0 -32768.0 -32768.0 -32768.0 -32768.0 -32768.0 -32768.0 -32768.0 -32768.0 -32768.0 -32768.0 -32768.0 -32768.0 -32768.0 -32768.0 -32768.0 -32768.0 -32768.0 -32768.0 
-32768.0 -32768.0 -32768.0 -32768.0 -32768.0 -32768.0 -32768.0 -32768.0 -32768.0 -32768.0 -32768.0 -32768.0 -32768.0 -32768.0 -32768.0 -32768.0 -32768.0 -32768.0 -32768.0 -32768.0 -32768.0 -32768.0 -32768.0 -32768.0 -32768.0 -32768.0 -32768.0 -32768.0 -32768.0 -32768.0 -32768.0 -32768.0 -32768.0 -32768.0 -32768.0 -32768.0 -32768.0 -32768.0 -32768.0 -32768.0 -32768.0 -32768.0 -32768.0 -32768.0 -32768.0 -32768.0 -32768.0 -32768.0 -32768.0 -32768.0 -32768.0 -32768.0 -32768.0 -32768.0 -32768.0 -32768.0 -32768.0 -32768.0 -32768.0 -32768.0 -32768.0 -32768.0 -32768.0 -32768.0 
-32768.0 -32768.0 -32768.0 -32768.0 -32768.0 -32768.0 -32768.0 -32768.0 -32768.0 -32768.0 -32768.0 -32768.0 -32768.0 -32768.0 -32768.0 -32768.0 -32768.0 -32768.0 -32768.0 -32768.0 -32768.0 -32768.0 -32768.0 -32768.0 -32768.0 -32768.0 -32768.0 -32768.0 -32768.0 -32768.0 -32768.0 -32768.0 -32768.0 -32768.0 -32768.0 -32768.0 -32768.0 -32768.0 -32768.0 -32768.0 -32768.0 -32768.0 -32768.0 -32768.0 -32768.0 -32768.0 -32768.0 -32768.0 -32768.0 -32768.0 -32768.0 -32768.0 -32768.0 -32768.0 -32768.0 -32768.0 -32768.0 -32768.0 -32768.0 -32768.0 -32768.0 -32768.0 -32768.0 -32768.0 
-32768.0 -32768.0 -32768.0 -32768.0 -32768.0 -32768.0 -32768.0 -32768.0 -32768.0 -32768.0 -32768.0 -32768.0 -32768.0 -32768.0 -32768.0 -32768.0 -32768.0 -32768.0 -32768.0 -32768.0 -32768.0 -32768.0 -32768.0 -32768.0 -32768.0 -32768.0 -32768.0 -32768.0 -32768.0 -32768.0 -32768.0 -32768.0 -32768.0 -32768.0 -32768.0 -32768.0 -32768.0 -32768.0 -32768.0 -32768.0 -32768.0 -32768.0 -32768.0 -32768.0 -32768.0 -32768.0 -32768.0 -32768.0 -32768.0 -32768.0 -32768.0 -32768.0 -32768.0 -32768.0 -32768.0 -32768.0 -32768.0 -32768.0 -32768.0 -32768.0 -32768.0 -32768.0 -32768.0 -32768.0 
-32768.0 -32768.0 -32768.0 -32768.0 -32768.0 -32768.0 -32768.0 -32768.0 -32768.0 -32768.0 -32768.0 -32768.0 -32768.0 -32768.0 -32768.0 -32768.0 -32768.0 -32768.0 -32768.0 -32768.0 -32768.0 -32768.0 -32768.0 -32768.0 -32768.0 -32768.0 -32768.0 -32768.0 -32768.0 -32768.0 -32768.0 -32768.0 -32768.0 -32768.0 -32768.0 -32768.0 -32768.0 -32768.0 -32768.0 -32768.0 -32768.0 -32768.0 -32768.0 -32768.0 -32768.0 -32768.0 -32768.0 -32768.0 -32768.0 -32768.0 -32768.0 -32768.0 -32768.0 -32768.0 -32768.0 -32768.0 -32768.0 -32768.0 -32768.0 -32768.0 -32768.0 -32768.0 -32768.0 -32768.0 
-32768.0 -32768.0 -32768.0 -32768.0 1076.8 1079.63 1085.98 1097.48 1098.1 1096.0 -32768.0 -32768.0 -32768.0 -32768.0 -32768.0 -32768.0 -32768.0 -32768.0 -32768.0 -32768.0 -32768.0 -32768.0 -32768.0 -32768.0 -32768.0 -32768.0 -32768.0 -32768.0 -32768.0 -32768.0 -32768.0 -32768.0 -32768.0 -32768.0 -32768.0 -32768.0 -32768.0 -32768.0 -32768.0 -32768.0 -32768.0 -32768.0 -32768.0 -32768.0 -32768.0 -32768.0 -32768.0 -32768.0 -32768.0 -32768.0 -32768.0 -32768.0 -32768.0 -32768.0 -32768.0 -32768.0 -32768.0 -32768.0 -32768.0 -32768.0 -32768.0 -32768.0 -32768.0 -32768.0 
-32768.0 -32768.0 1056.09 1061.5 1074.56 1069.04 1081.37 1097.95 1095.25 1108.0 1128.01 1141.47 1116.74 1116.61 1119.68 1125.02 1128.19 -32768.0 -32768.0 -32768.0 -32768.0 -32768.0 -32768.0 -32768.0 -32768.0 -32768.0 -32768.0 -32768.0 -32768.0 -32768.0 -32768.0 -32768.0 -32768.0 -32768.0 -32768.0 -32768.0 -32768.0 -32768.0 -32768.0 -32768.0 -32768.0 -32768.0 -32768.0 -32768.0 -32768.0 -32768.0 -32768.0 -32768.0 -32768.0 -32768.0 -32768.0 -32768.0 -32768.0 -32768.0 -32768.0 -32768.0 -32768.0 -32768.0 -32768.0 -32768.0 -32768.0 -32768.0 -32768.0 -32768.0 
-32768.0 -32768.0 -32768.0 -32768.0 -32768.0 -32768.0 -32768.0 -32768.0 -32768.0 -32768.0 -32768.0 -32768.0 -32768.0 -32768.0 1112.0 1127.23 1142.14 1147.75 1138.09 1131.23 1153.38 -32768.0 -32768.0 -32768.0 -32768.0 -32768.0 -32768.0 -32768.0 -32768.0 -32768.0 -32768.0 -32768.0 -32768.0 -32768.0 -32768.0 -32768.0 -32768.0 -32768.0 -32768.0 -32768.0 -32768.0 -32768.0 -32768.0 -32768.0 -32768.0 -32768.0 -32768.0 -32768.0 -32768.0 -32768.0 -32768.0 -32768.0 -32768.0 -32768.0 -32768.0 -32768.0 -32768.0 -32768.0 -32768.0 -32768.0 -32768.0 -32768.0 -32768.0 -32768.0 
-32768.0 -32768.0 -32768.0 -32768.0 -32768.0 -32768.0 -32768.0 -32768.0 -32768.0 -32768.0 -32768.0 -32768.0 -32768.0 -32768.0 -32768.0 -32768.0 -32768.0 -32768.0 -32768.0 1126.38 1150.54 1171.84 1195.47 1218.0 -32768.0 -32768.0 -32768.0 -32768.0 -32768.0 -32768.0 -32768.0 -32768.0 -32768.0 -32768.0 -32768.0 -32768.0 -32768.0 -32768.0 -32768.0 -32768.0 -32768.0 -32768.0 -32768.0 -32768.0 -32768.0 -32768.0 -32768.0 -32768.0 -32768.0 -32768.0 -32768.0 -32768.0 -32768.0 -32768.0 -32768.0 -32768.0 -32768.0 -32768.0 -32768.0 -32768.0 -32768.0 -32768.0 -32768.0 -32768.0 
-32768.0 -32768.0 -32768.0 -32768.0 -32768.0 -32768.0 -32768.0 -32768.0 -32768.0 -32768.0 -32768.0 -32768.0 -32768.0 -32768.0 -32768.0 -32768.0 -32768.0 -32768.0 -32768.0 -32768.0 -32768.0 -32768.0 1216.76 1228.7 1241.75 1271.73 -32768.0 -32768.0 -32768.0 -32768.0 -32768.0 -32768.0 -32768.0 -32768.0 -32768.0 -32768.0 -32768.0 -32768.0 -32768.0 -32768.0 -32768.0 -32768.0 -32768.0 -32768.0 -32768.0 -32768.0 -32768.0 -32768.0 -32768.0 -32768.0 -32768.0 -32768.0 -32768.0 -32768.0 -32768.0 -32768.0 -32768.0 -32768.0 -32768.0 -32768.0 -32768.0 -32768.0 -32768.0 -32768.0 
-32768.0 -32768.0 -32768.0 -32768.0 -32768.0 -32768.0 -32768.0 -32768.0 -32768.0 -32768.0 -32768.0 -32768.0 -32768.0 -32768.0 -32768.0 -32768.0 -32768.0 -32768.0 -32768.0 -32768.0 -32768.0 -32768.0 -32768.0 -32768.0 -32768.0 1251.09 1276.65 1286.9 1310.83 -32768.0 -32768.0 -32768.0 -32768.0 -32768.0 -32768.0 -32768.0 -32768.0 -32768.0 -32768.0 -32768.0 -32768.0 -32768.0 -32768.0 -32768.0 -32768.0 -32768.0 -32768.0 -32768.0 -32768.0 -32768.0 -32768.0 -32768.0 -32768.0 -32768.0 -32768.0 -32768.0 -32768.0 -32768.0 -32768.0 -32768.0 -32768.0 -32768.0 -32768.0 -32768.0 
-32768.0 -32768.0 -32768.0 -32768.0 -32768.0 -32768.0 -32768.0 -32768.0 -32768.0 -32768.0 -32768.0 -32768.0 -32768.0 -32768.0 -32768.0 -32768.0 -32768.0 -32768.0 -32768.0 -32768.0 -32768.0 -32768.0 -32768.0 -32768.0 -32768.0 -32768.0 -32768.0 1243.96 1257.28 1267.04 1320.0 -32768.0 -32768.0 -32768.0 -32768.0 -32768.0 -32768.0 -32768.0 -32768.0 -32768.0 -32768.0 -32768.0 -32768.0 -32768.0 -32768.0 -32768.0 -32768.0 -32768.0 -32768.0 -32768.0 -32768.0 -32768.0 -32768.0 -32768.0 -32768.0 -32768.0 -32768.0 -32768.0 -32768.0 -32768.0 -32768.0 -32768.0 -32768.0 -32768.0 
-32768.0 -32768.0 -32768.0 -32768.0 -32768.0 -32768.0 -32768.0 -32768.0 -32768.0 -32768.0 -32768.0 -32768.0 -32768.0 -32768.0 -32768.0 -32768.0 -32768.0 -32768.0 -32768.0 -32768.0 -32768.0 -32768.0 -32768.0 -32768.0 -32768.0 -32768.0 -32768.0 -32768.0 -32768.0 1260.68 1275.17 1278.24 -32768.0 -32768.0 -32768.0 -32768.0 -32768.0 -32768.0 -32768.0 -32768.0 -32768.0 -32768.0 -32768.0 -32768.0 -32768.0 -32768.0 -32768.0 -32768.0 -32768.0 -32768.0 -32768.0 -32768.0 -32768.0 -32768.0 -32768.0 -32768.0 -32768.0 -32768.0 -32768.0 -32768.0 -32768.0 -32768.0 -32768.0 -32768.0 
-32768.0 -32768.0 -32768.0 -32768.0 -32768.0 -32768.0 -32768.0 -32768.0 -32768.0 -32768.0 -32768.0 -32768.0 -32768.0 -32768.0 -32768.0 -32768.0 -32768.0 -32768.0 -32768.0 -32768.0 -32768.0 -32768.0 -32768.0 -32768.0 -32768.0 -32768.0 -32768.0 -32768.0 -32768.0 -32768.0 -32768.0 1257.85 1236.82 1235.58 -32768.0 -32768.0 -32768.0 -32768.0 -32768.0 -32768.0 -32768.0 -32768.0 -32768.0 -32768.0 -32768.0 -32768.0 -32768.0 -32768.0 -32768.0 -32768.0 -32768.0 -32768.0 -32768.0 -32768.0 -32768.0 -32768.0 -32768.0 -32768.0 -32768.0 -32768.0 -32768.0 -32768.0 -32768.0 -32768.0 
-32768.0 -32768.0 -32768.0 -32768.0 -32768.0 -32768.0 -32768.0 -32768.0 -32768.0 -32768.0 -32768.0 -32768.0 -32768.0 -32768.0 -32768.0 -32768.0 -32768.0 -32768.0 -32768.0 -32768.0 -32768.0 -32768.0 -32768.0 -32768.0 -32768.0 -32768.0 -32768.0 -32768.0 -32768.0 -32768.0 -32768.0 -32768.0 1235.5 1214.61 1214.6 -32768.0 -32768.0 -32768.0 -32768.0 -32768.0 -32768.0 -32768.0 -32768.0 -32768.0 -32768.0 -32768.0 -32768.0 -32768.0 -32768.0 -32768.0 -32768.0 -32768.0 -32768.0 -32768.0 -32768.0 -32768.0 -32768.0 -32768.0 -32768.0 -32768.0 -32768.0 -32768.0 -32768.0 -32768.0 
-32768.0 -32768.0 -32768.0 -32768.0 -32768.0 -32768.0 -32768.0 -32768.0 -32768.0 -32768.0 -32768.0 -32768.0 -32768.0 -32768.0 -32768.0 -32768.0 -32768.0 -32768.0 -32768.0 -32768.0 -32768.0 -32768.0 -32768.0 -32768.0 -32768.0 -32768.0 -32768.0 -32768.0 -32768.0 -32768.0 -32768.0 -32768.0 -32768.0 -32768.0 1202.74 1196.37 1198.0 -32768.0 -32768.0 -32768.0 -32768.0 -32768.0 -32768.0 -32768.0 -32768.0 -32768.0 -32768.0 -32768.0 -32768.0 -32768.0 -32768.0 -32768.0 -32768.0 -32768.0 -32768.0 -32768.0 -32768.0 -32768.0 -32768.0 -32768.0 -32768.0 -32768.0 -32768.0 -32768.0 
-32768.0 -32768.0 -32768.0 -32768.0 -32768.0 -32768.0 -32768.0 -32768.0 -32768.0 -32768.0 -32768.0 -32768.0 -32768.0 -32768.0 -32768.0 -32768.0 -32768.0 -32768.0 -32768.0 -32768.0 -32768.0 -32768.0 -32768.0 -32768.0 -32768.0 -32768.0 -32768.0 -32768.0 -32768.0 -32768.0 -32768.0 -32768.0 -32768.0 -32768.0 -32768.0 1173.36 1169.72 1162.47 -32768.0 -32768.0 -32768.0 -32768.0 -32768.0 -32768.0 -32768.0 -32768.0 -32768.0 -32768.0 -32768.0 -32768.0 -32768.0 -32768.0 -32768.0 -32768.0 -32768.0 -32768.0 -32768.0 -32768.0 -32768.0 -32768.0 -32768.0 -32768.0 -32768.0 -32768.0 
-32768.0 -32768.0 -32768.0 -32768.0 -32768.0 -32768.0 -32768.0 -32768.0 -32768.0 -32768.0 -32768.0 -32768.0 -32768.0 -32768.0 -32768.0 -32768.0 -32768.0 -32768.0 -32768.0 -32768.0 -32768.0 -32768.0 -32768.0 -32768.0 -32768.0 -32768.0 -32768.0 -32768.0 -32768.0 -32768.0 -32768.0 -32768.0 -32768.0 -32768.0 -32768.0 -32768.0 1162.0 1142.58 1119.04 -32768.0 -32768.0 -32768.0 -32768.0 -32768.0 -32768.0 -32768.0 -32768.0 -32768.0 -32768.0 -32768.0 -32768.0 -32768.0 -32768.0 -32768.0 -32768.0 -32768.0 -32768.0 -32768.0 -32768.0 -32768.0 -32768.0 -32768.0 -32768.0 -32768.0 
-32768.0 -32768.0 -32768.0 -32768.0 -32768.0 -32768.0 -32768.0 -32768.0 -32768.0 -32768.0 -32768.0 -32768.0 -32768.0 -32768.0 -32768.0 -32768.0 -32768.0 -32768.0 -32768.0 -32768.0 -32768.0 -32768.0 -32768.0 -32768.0 -32768.0 -32768.0 -32768.0 -32768.0 -32768.0 -32768.0 -32768.0 -32768.0 -32768.0 -32768.0 -32768.0 -32768.0 -32768.0 -32768.0 1118.44 1123.63 -32768.0 -32768.0 -32768.0 -32768.0 -32768.0 -32768.0 -32768.0 -32768.0 -32768.0 -32768.0 -32768.0 -32768.0 -32768.0 -32768.0 -32768.0 -32768.0 -32768.0 -32768.0 -32768.0 -32768.0 -32768.0 -32768.0 -32768.0 -32768.0 
-32768.0 -32768.0 -32768.0 -32768.0 -32768.0 -32768.0 -32768.0 -32768.0 -32768.0 -32768.0 -32768.0 -32768.0 -32768.0 -32768.0 -32768.0 -32768.0 -32768.0 -32768.0 -32768.0 -32768.0 -32768.0 -32768.0 -32768.0 -32768.0 -32768.0 -32768.0 -32768.0 -32768.0 -32768.0 -32768.0 -32768.0 -32768.0 -32768.0 -32768.0 -32768.0 -32768.0 -32768.0 -32768.0 -32768.0 1124.03 1132.12 -32768.0 -32768.0 -32768.0 -32768.0 -32768.0 -32768.0 -32768.0 -32768.0 -32768.0 -32768.0 -32768.0 -32768.0 -32768.0 -32768.0 -32768.0 -32768.0 -32768.0 -32768.0 -32768.0 -32768.0 -32768.0 -32768.0 -32768.0 
-32768.0 -32768.0 -32768.0 -32768.0 -32768.0 -32768.0 -32768.0 -32768.0 -32768.0 -32768.0 -32768.0 -32768.0 -32768.0 -32768.0 -32768.0 -32768.0 -32768.0 -32768.0 -32768.0 -32768.0 -32768.0 -32768.0 -32768.0 -32768.0 -32768.0 -32768.0 -32768.0 -32768.0 -32768.0 -32768.0 -32768.0 -32768.0 -32768.0 -32768.0 -32768.0 -32768.0 -32768.0 -32768.0 -32768.0 -32768.0 1138.43 1134.38 -32768.0 -32768.0 -32768.0 -32768.0 -32768.0 -32768.0 -32768.0 -32768.0 -32768.0 -32768.0 -32768.0 -32768.0 -32768.0 -32768.0 -32768.0 -32768.0 -32768.0 -32768.0 -32768.0 -32768.0 -32768.0 -32768.0 
-32768.0 -32768.0 -32768.0 -32768.0 -32768.0 -32768.0 -32768.0 -32768.0 -32768.0 -32768.0 -32768.0 -32768.0 -32768.0 -32768.0 -32768.0 -32768.0 -32768.0 -32768.0 -32768.0 -32768.0 -32768.0 -32768.0 -32768.0 -32768.0 -32768.0 -32768.0 -32768.0 -32768.0 -32768.0 -32768.0 -32768.0 -32768.0 -32768.0 -32768.0 -32768.0 -32768.0 -32768.0 -32768.0 -32768.0 -32768.0 -32768.0 1126.66 1132.7 -32768.0 -32768.0 -32768.0 -32768.0 -32768.0 -32768.0 -32768.0 -32768.0 -32768.0 -32768.0 -32768.0 -32768.0 -32768.0 -32768.0 -32768.0 -32768.0 -32768.0 -32768.0 -32768.0 -32768.0 -32768.0 
-32768.0 -32768.0 -32768.0 -32768.0 -32768.0 -32768.0 -32768.0 -32768.0 -32768.0 -32768.0 -32768.0 -32768.0 -32768.0 -32768.0 -32768.0 -32768.0 -32768.0 -32768.0 -32768.0 -32768.0 -32768.0 -32768.0 -32768.0 -32768.0 -32768.0 -32768.0 -32768.0 -32768.0 -32768.0 -32768.0 -32768.0 -32768.0 -32768.0 -32768.0 -32768.0 -32768.0 -32768.0 -32768.0 -32768.0 -32768.0 -32768.0 -32768.0 1135.62 1132.56 -32768.0 -32768.0 -32768.0 -32768.0 -32768.0 -32768.0 -32768.0 -32768.0 -32768.0 -32768.0 -32768.0 -32768.0 -32768.0 -32768.0 -32768.0 -32768.0 -32768.0 -32768.0 -32768.0 -32768.0 
-32768.0 -32768.0 -32768.0 -32768.0 -32768.0 -32768.0 -32768.0 -32768.0 -32768.0 -32768.0 -32768.0 -32768.0 -32768.0 -32768.0 -32768.0 -32768.0 -32768.0 -32768.0 -32768.0 -32768.0 -32768.0 -32768.0 -32768.0 -32768.0 -32768.0 -32768.0 -32768.0 -32768.0 -32768.0 -32768.0 -32768.0 -32768.0 -32768.0 -32768.0 -32768.0 -32768.0 -32768.0 -32768.0 -32768.0 -32768.0 -32768.0 -32768.0 1145.0 1131.43 1117.87 -32768.0 -32768.0 -32768.0 -32768.0 -32768.0 -32768.0 -32768.0 -32768.0 -32768.0 -32768.0 -32768.0 -32768.0 -32768.0 -32768.0 -32768.0 -32768.0 -32768.0 -32768.0 -32768.0 
-32768.0 -32768.0 -32768.0 -32768.0 -32768.0 -32768.0 -32768.0 -32768.0 -32768.0 -32768.0 -32768.0 -32768.0 -32768.0 -32768.0 -32768.0 -32768.0 -32768.0 -32768.0 -32768.0 -32768.0 -32768.0 -32768.0 -32768.0 -32768.0 -32768.0 -32768.0 -32768.0 -32768.0 -32768.0 -32768.0 -32768.0 -32768.0 -32768.0 -32768.0 -32768.0 -32768.0 -32768.0 -32768.0 -32768.0 -32768.0 -32768.0 -32768.0 -32768.0 1141.14 1138.43 -32768.0 -32768.0 -32768.0 -32768.0 -32768.0 -32768.0 -32768.0 -32768.0 -32768.0 -32768.0 -32768.0 -32768.0 -32768.0 -32768.0 -32768.0 -32768.0 -32768.0 -32768.0 -32768.0 
-32768.0 -32768.0 -32768.0 -32768.0 -32768.0 -32768.0 -32768.0 -32768.0 -32768.0 -32768.0 -32768.0 -32768.0 -32768.0 -32768.0 -32768.0 -32768.0 -32768.0 -32768.0 -32768.0 -32768.0 -32768.0 -32768.0 -32768.0 -32768.0 -32768.0 -32768.0 -32768.0 -32768.0 -32768.0 -32768.0 -32768.0 -32768.0 -32768.0 -32768.0 -32768.0 -32768.0 -32768.0 -32768.0 -32768.0 -32768.0 -32768.0 -32768.0 -32768.0 -32768.0 1133.75 1131.01 -32768.0 -32768.0 -32768.0 -32768.0 -32768.0 -32768.0 -32768.0 -32768.0 -32768.0 -32768.0 -32768.0 -32768.0 -32768.0 -32768.0 -32768.0 -32768.0 -32768.0 -32768.0 